 Gaussian 16, Revision B.01,
 Gaussian 16:  EM64L-G16RevB.01 20-Dec-2017

 ----------------------------------------------------------------------
 #P HF/6-311G # Opt( MaxCycle=10) # Gfinput IOP(6/7=3) Pop=full Density
  Test # Units(Ang,Deg)
 ----------------------------------------------------------------------

 ----------------------------------
 Input file generated by gabedit...
 ----------------------------------
 Symbolic Z-matrix:
 Charge =  0 Multiplicity = 1

 SCF Done:  E(RHF) =  -112.277915048     A.U. after   21 cycles
 SCF Done:  E(RHF) =  -112.278109627     A.U. after    7 cycles
 SCF Done:  E(RHF) =  -112.278891535     A.U. after    7 cycles
 SCF Done:  E(RHF) =  -112.281462007     A.U. after    8 cycles
 SCF Done:  E(RHF) =  -112.289957764     A.U. after    9 cycles
 SCF Done:  E(RHF) =  -112.317883838     A.U. after   11 cycles
 SCF Done:  E(RHF) =  -112.444651546     A.U. after   12 cycles
 SCF Done:  E(RHF) =  -112.697675406     A.U. after   11 cycles
 SCF Done:  E(RHF) =  -112.698950854     A.U. after   10 cycles
 SCF Done:  E(RHF) =  -112.699491982     A.U. after    9 cycles
 Optimization completed.
    -- Stationary point found.

                         Standard orientation:
 ---------------------------------------------------------------------
 Center     Atomic      Atomic             Coordinates (Angstroms)
 Number     Number       Type             X           Y           Z
 ---------------------------------------------------------------------
      1          6           0        0.000000   -0.000000   -0.642112
      2          8           0        0.000000    0.000000    0.481584
 ---------------------------------------------------------------------

 The electronic state is 1-SG.
 Alpha  occ. eigenvalues --  -20.68365 -11.39035  -1.56752  -0.80035  -0.64833
 Alpha  occ. eigenvalues --   -0.64833  -0.55681
 Alpha virt. eigenvalues --    0.13280   0.13280   0.34819   0.56318   0.56318
 Alpha virt. eigenvalues --    0.59616   0.86922   1.04458   1.04458   1.07935
 Alpha virt. eigenvalues --    1.58409   2.90744   2.90744   3.00088   5.26717

 Mulliken charges:
               1
     1  C    0.327600
     2  O   -0.327600
 Sum of Mulliken charges =  -0.00000

 Dipole moment (field-independent basis, Debye):
    X=             -0.0000    Y=             -0.0000    Z=             -0.4766  Tot=              0.4766
 Quadrupole moment (field-independent basis, Debye-Ang):
   XX=            -10.1325   YY=            -10.1325   ZZ=            -13.0303
   XY=             -0.0000   XZ=              0.0000   YZ=              0.0000

 Normal termination of Gaussian 16 at Mon Jun 12 20:20:39 2023.
