 Gaussian 16, Revision B.01,
 Gaussian 16:  EM64L-G16RevB.01 20-Dec-2017

 ------------------------------------
 # CIS(Triplets)/6-311G Geom=AllCheck
 ------------------------------------

 Structure from the checkpoint file:  "/tmp/Gau-34213.chk"
 ----------------------------------
 Input file generated by gabedit...
 ----------------------------------
 Charge =  0 Multiplicity = 1

                         Standard orientation:
 ---------------------------------------------------------------------
 Center     Atomic      Atomic             Coordinates (Angstroms)
 Number     Number       Type             X           Y           Z
 ---------------------------------------------------------------------
      1          6           0       -0.000000   -0.000000   -0.642112
      2          8           0        0.000000    0.000000    0.481584
 ---------------------------------------------------------------------

 SCF Done:  E(RHF) =  -112.699491982     A.U. after   10 cycles

 Excitation energies and oscillator strengths:

 Excited state symmetry could not be determined.
 Excited State   1:      Triplet-?Sym    5.7985 eV  213.82 nm  f=0.0000  <S**2>=2.000
       7 ->  9         0.68763
       7 -> 12        -0.15692
 This state for optimization and/or second-order correction.
 Total Energy, E(CIS/TDA) =  -112.486402663
 Copying the excited state density for this state as the 1-particle RhoCI density.

 Excited state symmetry could not be determined.
 Excited State   2:      Triplet-?Sym    5.7985 eV  213.82 nm  f=0.0000  <S**2>=2.000
       7 ->  8         0.68763
       7 -> 11        -0.15691

 Excited state symmetry could not be determined.
 Excited State   3:      Triplet-?Sym    7.6213 eV  162.68 nm  f=0.0000  <S**2>=2.000
       5 ->  9         0.48758
       6 ->  8         0.48758

 The electronic state is 1-SG.
 Alpha  occ. eigenvalues --  -20.68365 -11.39035  -1.56752  -0.80035  -0.64833
 Alpha  occ. eigenvalues --   -0.64833  -0.55681
 Alpha virt. eigenvalues --    0.13280   0.13280   0.34819   0.56318   0.56318
 Alpha virt. eigenvalues --    0.59616   0.86922   1.04458   1.04458   1.07935
 Alpha virt. eigenvalues --    1.58409   2.90744   2.90744   3.00088   5.26717

 Mulliken charges:
               1
     1  C    0.327600
     2  O   -0.327600
 Sum of Mulliken charges =  -0.00000

 Dipole moment (field-independent basis, Debye):
    X=             -0.0000    Y=             -0.0000    Z=             -0.4766  Tot=              0.4766
 Quadrupole moment (field-independent basis, Debye-Ang):
   XX=            -10.1325   YY=            -10.1325   ZZ=            -13.0303
   XY=             -0.0000   XZ=              0.0000   YZ=             -0.0000

 Normal termination of Gaussian 16 at Mon Jun 12 20:06:30 2023.
