 Gaussian 16, Revision B.01,
 Gaussian 16:  EM64L-G16RevB.01 20-Dec-2017

 ------------------------------------------------
 #P B3LYP/6-311G TD(Triplets) # Opt Geom=AllCheck
 ------------------------------------------------

 Structure from the checkpoint file:  "/tmp/Gau-34275.chk"
 ----------------------------------
 Input file generated by gabedit...
 ----------------------------------
 Charge =  0 Multiplicity = 1

 SCF Done:  E(RB3LYP) =  -113.295654838     A.U. after   11 cycles
 Total Energy, E(TD-HF/TD-DFT) =  -113.081746121
 SCF Done:  E(RB3LYP) =  -113.292319560     A.U. after   11 cycles
 Total Energy, E(TD-HF/TD-DFT) =  -113.100355570
 SCF Done:  E(RB3LYP) =  -113.283884278     A.U. after   10 cycles
 Total Energy, E(TD-HF/TD-DFT) =  -113.102326263
 SCF Done:  E(RB3LYP) =  -113.284151850     A.U. after    6 cycles

 Excitation energies and oscillator strengths:

 Excited state symmetry could not be determined.
 Excited State   1:      Triplet-?Sym    4.9477 eV  250.59 nm  f=0.0000  <S**2>=2.000
       7 ->  8        -0.69863
       7 ->  9        -0.11720
 This state for optimization and/or second-order correction.
 Total Energy, E(TD-HF/TD-DFT) =  -113.102327589
 Copying the excited state density for this state as the 1-particle RhoCI density.

 Excited state symmetry could not be determined.
 Excited State   2:      Triplet-?Sym    4.9477 eV  250.59 nm  f=0.0000  <S**2>=2.000
       7 ->  8         0.11720
       7 ->  9        -0.69863

 Excited state symmetry could not be determined.
 Excited State   3:      Triplet-?Sym    5.9422 eV  208.65 nm  f=0.0000  <S**2>=2.000
       5 ->  8         0.50590
       6 ->  9         0.50590

 Optimization completed.
    -- Stationary point found.

                         Standard orientation:
 ---------------------------------------------------------------------
 Center     Atomic      Atomic             Coordinates (Angstroms)
 Number     Number       Type             X           Y           Z
 ---------------------------------------------------------------------
      1          6           0        0.000000    0.000000   -0.706250
      2          8           0       -0.000000   -0.000000    0.529687
 ---------------------------------------------------------------------

 The electronic state is 1-SG.
 Alpha  occ. eigenvalues --  -19.24691 -10.34018  -1.14873  -0.57891  -0.45643
 Alpha  occ. eigenvalues --   -0.45643  -0.38959
 Alpha virt. eigenvalues --   -0.07962  -0.07962   0.19587   0.38268   0.38268
 Alpha virt. eigenvalues --    0.42603   0.53418   0.73597   0.78539   0.78539
 Alpha virt. eigenvalues --    1.28323   2.50252   2.50252   2.65065   4.69718

 Mulliken charges:
               1
     1  C    0.247794
     2  O   -0.247794
 Sum of Mulliken charges =  -0.00000

 Dipole moment (field-independent basis, Debye):
    X=             -0.0000    Y=             -0.0000    Z=             -0.3857  Tot=              0.3857
 Quadrupole moment (field-independent basis, Debye-Ang):
   XX=            -10.3578   YY=            -10.3578   ZZ=            -12.8573
   XY=             -0.0000   XZ=              0.0000   YZ=             -0.0000

 Normal termination of Gaussian 16 at Mon Jun 12 20:10:20 2023.
